 Gaussian 16, Revision B.01,
 Gaussian 16:  EM64M-G16RevB.01 20-Dec-2017

 -------------------------
 # output=wfn b3lyp/6-31G*
 -------------------------

 -----
 title
 -----
 Symbolic Z-matrix:
 Charge =  0 Multiplicity = 1

                         Standard orientation:
 ---------------------------------------------------------------------
 Center     Atomic      Atomic             Coordinates (Angstroms)
 Number     Number       Type             X           Y           Z
 ---------------------------------------------------------------------
      1          6           0        2.597665   -0.123502    0.000077
      2          6           0        2.122643    1.181748   -0.000611
      3          6           0        0.742642    1.409240   -0.000361
      4          6           0       -0.162907    0.337866    0.000370
      5          6           0        0.336315   -0.966099    0.001169
      6          6           0        1.716138   -1.195882    0.001079
      7          6           0       -2.605938   -0.220850   -0.000711
      8          6           0       -3.927194    0.506528    0.000979
      9          1           0       -4.747755   -0.216318   -0.007402
     10          1           0       -4.008736    1.125116    0.899227
     11          1           0       -4.003795    1.139607   -0.887578
     12          8           0        3.932687   -0.395915   -0.000234
     13          1           0        4.422944    0.442014   -0.001763
     14          8           0       -2.561225   -1.445065   -0.002173
     15          7           0       -1.536355    0.657120    0.000356
     16          1           0       -1.762037    1.643534    0.000843
     17          1           0        2.801791    2.028109   -0.001341
     18          1           0        0.387701    2.436433   -0.000956
     19          1           0       -0.319482   -1.830938    0.002037
     20          1           0        2.095973   -2.213853    0.001752
 ---------------------------------------------------------------------

 SCF Done:  E(RB3LYP) =  -515.477193747     A.U. after   15 cycles

 The electronic state is 1-A.
 Alpha  occ. eigenvalues --  -19.17472 -19.11754 -14.37602 -10.29269 -10.24324
 Alpha  occ. eigenvalues --  -10.23043 -10.19712 -10.19241 -10.19189 -10.18416
 Alpha  occ. eigenvalues --  -10.18296  -1.05779  -1.03317  -0.94132  -0.84494
 Alpha  occ. eigenvalues --   -0.76188  -0.74951  -0.71719  -0.64051  -0.61291
 Alpha  occ. eigenvalues --   -0.58239  -0.54585  -0.52918  -0.48226  -0.46337
 Alpha  occ. eigenvalues --   -0.45692  -0.44203  -0.42728  -0.41416  -0.40896
 Alpha  occ. eigenvalues --   -0.40026  -0.39250  -0.38535  -0.37404  -0.34385
 Alpha  occ. eigenvalues --   -0.33984  -0.28589  -0.25143  -0.24896  -0.20072
 Alpha virt. eigenvalues --   -0.00414   0.00145   0.05191   0.06547   0.06804
 Alpha virt. eigenvalues --    0.09827   0.12474   0.15018   0.15930   0.16440
 Alpha virt. eigenvalues --    0.17369   0.18427   0.20248   0.22188   0.24177

 Mulliken charges:
               1
     1  C    0.361250
     2  C   -0.201360
     3  C   -0.206091
     4  C    0.360582
     5  C   -0.172046
     6  C   -0.174078
     7  C    0.602097
     8  C   -0.551842
     9  H    0.190582
    10  H    0.167559
    11  H    0.166876
    12  O   -0.645728
    13  H    0.404644
    14  O   -0.491442
    15  N   -0.712494
    16  H    0.330028
    17  H    0.120494
    18  H    0.120147
    19  H    0.185350
    20  H    0.145472
 Sum of Mulliken charges =  -0.00000

 Dipole moment (field-independent basis, Debye):
    X=              0.2588    Y=              4.7348    Z=              0.0036  Tot=              4.7418
 Quadrupole moment (field-independent basis, Debye-Ang):
   XX=            -55.5646   YY=            -60.3762   ZZ=            -66.0209
   XY=             -2.2761   XZ=             -0.0285   YZ=             -0.0112

 1\1\GINC-RUNNINGMAN\SP\RB3LYP\6-31G(d)\C8H9N1O2\RPATON\08-Aug-2021\0\\
 # output=wfn b3lyp/6-31G*\\title\\0,1\C,0,-1.2008,0.52014,0.02618\C,0,
 -0.65849,1.79875,0.00662\C,0,0.73147,1.95418,0.00966\C,0,1.58002,0.837
 35,0.03236\C,0,1.01361,-0.43872,0.05166\C,0,-0.37629,-0.59645,0.0485\C
 ,0,3.99063,0.15254,0.05602\C,0,5.34795,0.81013,0.0486\H,0,6.12973,0.04
 588,0.07389\H,0,5.46548,1.40767,-0.85985\H,0,5.45354,1.45398,0.92638\O
 ,0,-2.54818,0.31752,0.02422\H,0,-2.99416,1.17969,0.00857\O,0,3.88225,-
 1.06748,0.07858\N,0,2.96821,1.08475,0.03403\H,0,3.24493,2.05794,0.0175

 Normal termination of Gaussian 16 at Sun Aug  8 20:26:30 2021.
