 Gaussian 09, Revision D.01,
 Gaussian 09:  ES64L-G09RevD.01 24-Apr-2013

 ------------------------------
 #P rb3lyp/6-311+g(d,p) pop=esp
 ------------------------------

 ------
 header
 ------
 Symbolic Z-matrix:
 Charge =  0 Multiplicity = 1

                         Standard orientation:
 ---------------------------------------------------------------------
 Center     Atomic      Atomic             Coordinates (Angstroms)
 Number     Number       Type             X           Y           Z
 ---------------------------------------------------------------------
      1          8           0        1.222565    0.707165   -0.354240
      2          8           0       -1.222543   -0.707134   -0.354286
      3          6           0       -1.820781    0.370307    0.380641
      4          1           0       -2.628118    0.827256   -0.201620
      5          1           0       -2.233203   -0.072063    1.287078
      6          1           0       -1.078443    1.128623    0.641770
      7          6           0        1.820763   -0.370340    0.380626
      8          1           0        2.628080   -0.827290   -0.201664
      9          1           0        2.233206    0.071965    1.287085
     10          1           0        1.078394   -1.128640    0.641715
     11          1           0        0.799723    0.450078   -1.176864
     12          1           0       -0.799708   -0.449981   -1.176894
 ---------------------------------------------------------------------

 SCF Done:  E(RB3LYP) =  -231.522004756     A.U. after   10 cycles

 The electronic state is 1-A.
 Alpha  occ. eigenvalues --  -19.12574 -19.12574 -10.21195 -10.21195  -1.02783
 Alpha  occ. eigenvalues --   -1.01628  -0.69252  -0.69070  -0.52320  -0.50743
 Alpha  occ. eigenvalues --   -0.45429  -0.43686  -0.43016  -0.42996  -0.34593
 Alpha  occ. eigenvalues --   -0.33155  -0.28401  -0.28298
 Alpha virt. eigenvalues --   -0.02090   0.01833   0.02043   0.03696   0.05719
 Alpha virt. eigenvalues --    0.05723   0.06574   0.09392   0.11117   0.13760
 Alpha virt. eigenvalues --    0.14421   0.15938   0.15945   0.17415   0.18781

 Mulliken charges:
               1
     1  O   -0.384329
     2  O   -0.384330
     3  C   -0.261434
     4  H    0.123045
     5  H    0.140152
     6  H    0.150720
     7  C   -0.261434
     8  H    0.123045
     9  H    0.140151
    10  H    0.150721
    11  H    0.231847
    12  H    0.231846
 Sum of Mulliken charges =  -0.00000

 Dipole moment (field-independent basis, Debye):
    X=             -0.0001    Y=              0.0000    Z=             -0.7238  Tot=              0.7238
 Quadrupole moment (field-independent basis, Debye-Ang):
   XX=            -26.7779   YY=            -30.7763   ZZ=            -22.4586
   XY=             -4.9991   XZ=             -0.0002   YZ=             -0.0003

 ESP charges:
               1
     1  O   -0.642334
     2  O   -0.642088
     3  C    0.199718
     4  H   -0.016013
     5  H    0.059162
     6  H    0.006573
     7  C    0.215928
     8  H   -0.021982
     9  H    0.054729
    10  H    0.004127
    11  H    0.390172
    12  H    0.392007
 Sum of ESP charges =  -0.00000

 Normal termination of Gaussian 09 at Mon Apr 24 09:44:17 2017.
