 Gaussian 16, Revision B.01,
 Gaussian 16:  EM64M-G16RevB.01 20-Dec-2017

 ---------------
 # ub3lyp/6-31G*
 ---------------

 -----
 title
 -----
 Symbolic Z-matrix:
 Charge =  1 Multiplicity = 2

                         Standard orientation:
 ---------------------------------------------------------------------
 Center     Atomic      Atomic             Coordinates (Angstroms)
 Number     Number       Type             X           Y           Z
 ---------------------------------------------------------------------
      1          6           0        2.597665   -0.123502    0.000077
      2          6           0        2.122643    1.181748   -0.000611
      3          6           0        0.742642    1.409240   -0.000361
      4          6           0       -0.162907    0.337866    0.000370
      5          6           0        0.336315   -0.966099    0.001169
      6          6           0        1.716138   -1.195882    0.001079
      7          6           0       -2.605938   -0.220850   -0.000711
      8          6           0       -3.927194    0.506528    0.000979
      9          1           0       -4.747755   -0.216318   -0.007402
     10          1           0       -4.008736    1.125116    0.899227
     11          1           0       -4.003795    1.139607   -0.887578
     12          8           0        3.932687   -0.395915   -0.000234
     13          1           0        4.422944    0.442014   -0.001763
     14          8           0       -2.561225   -1.445065   -0.002173
     15          7           0       -1.536355    0.657120    0.000356
     16          1           0       -1.762037    1.643534    0.000843
     17          1           0        2.801791    2.028109   -0.001341
     18          1           0        0.387701    2.436433   -0.000956
     19          1           0       -0.319482   -1.830938    0.002037
     20          1           0        2.095973   -2.213853    0.001752
 ---------------------------------------------------------------------

 SCF Done:  E(UB3LYP) =  -515.204552181     A.U. after   22 cycles

 The electronic state is 2-A.
 Alpha  occ. eigenvalues --  -19.39071 -19.29910 -14.58973 -10.46550 -10.46470
 Alpha  occ. eigenvalues --  -10.45358 -10.40273 -10.39517 -10.38719 -10.38663
 Alpha  occ. eigenvalues --  -10.32803  -1.26667  -1.21457  -1.14280  -1.05417
 Alpha  occ. eigenvalues --   -0.95712  -0.94969  -0.88689  -0.83873  -0.80929
 Alpha  occ. eigenvalues --   -0.77594  -0.74212  -0.72753  -0.67154  -0.64419
 Alpha  occ. eigenvalues --   -0.63386  -0.62813  -0.61833  -0.61386  -0.59922
 Alpha  occ. eigenvalues --   -0.57675  -0.56796  -0.56717  -0.54147  -0.53796
 Alpha  occ. eigenvalues --   -0.52116  -0.48637  -0.45065  -0.42015  -0.41466
 Alpha virt. eigenvalues --   -0.20418  -0.19618  -0.13458  -0.09731  -0.09630
 Alpha virt. eigenvalues --   -0.07253  -0.03102  -0.01358  -0.00838   0.00541
 Alpha virt. eigenvalues --    0.02188   0.03127   0.04430   0.05499   0.05865

  Beta  occ. eigenvalues --  -19.38608 -19.29666 -14.58481 -10.46543 -10.46230
  Beta  occ. eigenvalues --  -10.45076 -10.40151 -10.39475 -10.38658 -10.38598
  Beta  occ. eigenvalues --  -10.32799  -1.25718  -1.20921  -1.13356  -1.04690
  Beta  occ. eigenvalues --   -0.94930  -0.94593  -0.88404  -0.83500  -0.80543
  Beta  occ. eigenvalues --   -0.77284  -0.73978  -0.72402  -0.66865  -0.64209
  Beta  occ. eigenvalues --   -0.62624  -0.61771  -0.61638  -0.59794  -0.59328
  Beta  occ. eigenvalues --   -0.57352  -0.56614  -0.55158  -0.53879  -0.53749
  Beta  occ. eigenvalues --   -0.50765  -0.45936  -0.44426  -0.41749
  Beta virt. eigenvalues --   -0.34452  -0.19082  -0.17721  -0.12097  -0.09607
  Beta virt. eigenvalues --   -0.09426  -0.07027  -0.01522  -0.01328  -0.00595
  Beta virt. eigenvalues --    0.00596   0.02482   0.03281   0.04567   0.05936

 Mulliken charges and spin densities:
               1          2
     1  C    0.401026   0.214312
     2  C   -0.165225   0.021223
     3  C   -0.171760   0.078064
     4  C    0.403485   0.203376
     5  C   -0.136200   0.033809
     6  C   -0.136719   0.042159
     7  C    0.609895  -0.043965
     8  C   -0.564729   0.003614
     9  H    0.237422  -0.000551
    10  H    0.201601  -0.000802
    11  H    0.200688  -0.000805
    12  O   -0.544423   0.154689
    13  H    0.454396  -0.005195
    14  O   -0.411002   0.099577
    15  N   -0.659681   0.221301
    16  H    0.384799  -0.009030
    17  H    0.207410  -0.002037
    18  H    0.205623  -0.004332
    19  H    0.251750  -0.002642
    20  H    0.231644  -0.002767
 Sum of Mulliken charges =   1.00000   1.00000

 Dipole moment (field-independent basis, Debye):
    X=              2.7820    Y=              5.1279    Z=              0.0039  Tot=              5.8340
 Quadrupole moment (field-independent basis, Debye-Ang):
   XX=            -20.3946   YY=            -50.2195   ZZ=            -62.4408
   XY=             -2.3834   XZ=             -0.0304   YZ=             -0.0117

 Normal termination of Gaussian 16 at Sun Aug  8 21:32:33 2021.
